
                                 *****************
                                 * O   R   C   A *
                                 *****************

                                            #,                                       
                                            ###                                      
                                            ####                                     
                                            #####                                    
                                            ######                                   
                                           ########,                                 
                                     ,,################,,,,,                         
                               ,,#################################,,                 
                          ,,##########################################,,             
                       ,#########################################, ''#####,          
                    ,#############################################,,   '####,        
                  ,##################################################,,,,####,       
                ,###########''''           ''''###############################       
              ,#####''   ,,,,##########,,,,          '''####'''          '####       
            ,##' ,,,,###########################,,,                        '##       
           ' ,,###''''                  '''############,,,                           
         ,,##''                                '''############,,,,        ,,,,,,###''
      ,#''                                            '''#######################'''  
     '                                                          ''''####''''         
             ,#######,   #######,   ,#######,      ##                                
            ,#'     '#,  ##    ##  ,#'     '#,    #''#        ,####,    ,#,          
            ##       ##  ##   ,#'  ##            #'  '#       #'       ,# #          
            ##       ##  #######   ##           ,######,      #####,      #          
            '#,     ,#'  ##    ##  '#,     ,#' ,#      #,     #,   #      #          
             '#######'   ##     ##  '#######'  #'      '#     '####' #    #          



                #########################################################
                #                        -***-                          #
                #          Department of theory and spectroscopy        #
                #                                                       #
                #                      Frank Neese                      #
                #                                                       #
                #     Directorship, Architecture, Infrastructure        #
                #                    SHARK, DRIVERS                     #
                #        Core code/Algorithms in most modules           #
                #                                                       #
                #        Max Planck Institute fuer Kohlenforschung      #
                #                Kaiser Wilhelm Platz 1                 #
                #                 D-45470 Muelheim/Ruhr                 #
                #                      Germany                          #
                #                                                       #
                #                  All rights reserved                  #
                #                        -***-                          #
                #########################################################


                         Program Version 6.1.1  -  RELEASE   -


 With contributions from (in alphabetic order):
[Max-Planck-Institut fuer Kohlenforschung]                               
  Daniel Aravena         : Magnetic Suceptibility                        
  Michael Atanasov       : Ab Initio Ligand Field Theory (pilot matlab implementation)
  Alexander A. Auer      : GIAO ZORA, VPT2 properties, NMR spectrum      
  Ute Becker             : All parallelization in ORCA, NUMFREQ, NUMCALC 
  Giovanni Bistoni       : ED, misc. LED, open-shell LED, HFLD           
  Dmytro Bykov           : pre 5.0 version of the SCF Hessian            
  Marcos Casanova-Páez   : Triplet and SCS-CIS(D). UHF-(DLPNO)-IP/EA/STEOM-CCSD. UHF-CVS-IP/STEOM-CCSD   
  Vijay G. Chilkuri      : MRCI spin determinant printing, contributions to CSF-ICE 
  Pauline Colinet        : FMM embedding                                 
  Dipayan Datta          : RHF DLPNO-CCSD density                        
  Achintya Kumar Dutta   : EOM-CC, STEOM-CC                              
  Nicolas Foglia         : Exact transition moments, OPA infrastructure, MCD improvements    
  Dmitry Ganyushin       : Spin-Orbit,Spin-Spin,Magnetic field MRCI      
  Miquel Garcia-Rates    : C-PCM and meta-GGA Hessian, CCSD/C-PCM, Gaussian charge scheme 
  Tiago L. C. Gouveia    : GS-ROHF, GS-ROCIS                             
  Yang Guo               : DLPNO-NEVPT2, F12-NEVPT2, CIM, IAO-localization        
  Andreas Hansen         : Spin unrestricted coupled pair/coupled cluster methods 
  Ingolf Harden          : AUTO-CI MPn and infrastructure                
  Benjamin Helmich-Paris : MC-RPA, TRAH-(SCF,CASSCF), AVAS, COSX integrals, SCF dyn. polar., MC-PDFT, srDFT 
  Lee Huntington         : MR-EOM, pCC                                   
  Robert Izsak           : Overlap fitted RIJCOSX, COSX-SCS-MP3, EOM     
  Riya Kayal             : Wick's Theorem for AUTO-CI, AUTO-CI UHF-CCSDT 
  Emily Kempfer          : AUTO-CI RHF CISDT and CCSDT, approximate NEVPT4
  Christian Kollmar      : KDIIS, OOCD, Brueckner-CCSD(T), CCSD density, CASPT2, CASPT2-K, improved NEVPT2 
  Axel Koslowski         : Symmetry handling                             
  Simone Kossmann        : meta-GGA functionals, TD-DFT gradient, OOMP2, (MP2 Hessian; deprecated post 5.0) 
  Lucas Lang             : DCDCAS, Hyperfine gauge corrections, ICE-SOC+SSC
  Marvin Lechner         : AUTO-CI (C++ implementation), FIC-MRCC        
  Spencer Leger          : CASSCF response                               
  Dagmar Lenk            : GEPOL surface, SMD, ORCA-2-JSON               
  Dimitrios Liakos       : Extrapolation schemes; Compound Job, Property file
  Dimitrios Manganas     : Further ROCIS development; embedding schemes. LFT, Crystal Embedding 
  Dimitrios Pantazis     : SARC Basis sets                               
  Anastasios Papadopoulos: AUTO-CI, single reference methods and gradients 
  Taras Petrenko         : pre 6.0 DFT Hessian and TD-DFT gradient,  ECA, NRVS 
  Petra Pikulova         : Analytic Raman intensities                    
  Peter Pinski           : DLPNO-MP2, DLPNO-MP2 Gradient                 
  Shashank Vittal Rao    : ES-AILFT, MagRelax                            
  Christoph Reimann      : Effective Core Potentials                     
  Marius Retegan         : Local ZFS, SOC                                
  Christoph Riplinger    : Optimizer, TS searches, QM/MM, DLPNO-CCSD(T), (RO)-DLPNO pert. Triples 
  Michael Roemelt        : Original ROCIS implementation, recursive CI coupling coefficients
  Masaaki Saitow         : Open-shell DLPNO-CCSD energy and density      
  Barbara Sandhoefer     : DKH picture change effects                    
  Yorick L. A. Schmerwitz: GMF and freeze-and-release deltaSCF, NEB S-IDPP initial path                    
  Kantharuban Sivalingam : CASSCF convergence/infrastructure, NEVPT2, NEVPT3, NEVPT4(SD), FIC-MRCI and CEPA variants
  Bernardo de Souza      : ESD, SOC TD-DFT                               
  Georgi L. Stoychev     : AutoAux, RI-MP2 NMR, DLPNO-MP2 response, X2C  
  Van Anh Tran           : RI-MP2 g-tensors                              
  Willem Van den Heuvel  : Paramagnetic NMR                              
  Zikuan Wang            : NOTCH, Electric field optimization            
  Frank Wennmohs         : Technical directorship and infrastructure     
  Hang Xu                : AUTO-CI-Response properties                   
                                                                         
[FACCTs GmbH]                                                            
  Markus Bursch, Nicolas Foglia, Miquel Garcia-Rates, Ingolf Harden, Hagen Neugebauer, Anastasios Papadopoulos, 
  Christoph Riplinger, Bernardo de Souza, Georgi L. Stoychev                                                    
                                                                 
  APM, various basis sets, CI-OPT, improved COSX, DLPNO-Multilevel,           
  DOCKER, DRACO, updates on ESD, Fragmentator, GOAT, IRC, LR-CPCM, L-BFGS, MBIS, meta-GGA TD-DFT gradient, ML-optimized integration grids, 
  MM, NACMEs, nearIR, NEB, NEB-TS, NL-DFT gradient (VV10), 2- and 3-layer-ONIOM, interface openCOSMO-RS, QMMM,   
  Crystal-QMMM, RESP, rigid body optimization, SF, symmetry and pop. for TD-DFT, various functionals, SOLVATOR                                   
                                                                         
[Other institutions]                                                     
  V. Asgeirsson          : NEB                                           
  Christoph Bannwarth    : sTDA-DFT, sTD-DFT, PBEh-3c, B97-3c, D3        
  Giovanni Bistoni       : ETS/NOCV, ADLD/ADEX, COVALED                  
  Martin Brehm           : Molecular dynamics                            
  Ronald Cardenas        : ETS/NOCV                                      
  Martina Colucci        : COVALED                                       
  Sebastian Ehlert       : rSCAN, r2SCAN, r2SCAN-3c, D4, dhf basis sets  
  Marvin Friede          : D4 for Fr, Ra, Ac-Lr                          
  Lars Goerigk           : TD-DFT with DH, B97 family of functionals     
  Stefan Grimme          : VdW corrections, initial TS optimization, DFT functionals, gCP, sTDA/sTD-DF 
  Waldemar Hujo          : DFT-NL                                        
  H. Jonsson             : NEB                                           
  Holger Kruse           : gCP                                           
  Marcel Mueller         : wB97X-3c, vDZP basis set                      
  Hagen Neugebauer       : wr2SCAN, Native XTB                           
  Gianluca Regni         : ADLD/ADEX                                     
  Tobias Risthaus        : pre 6.0 range-separated hybrid DFT and stability analysis
  Lukas Wittmann         : regularized MP2, r2SCAN double-hybrids, wr2SCAN        
                                                                         
We gratefully acknowledge several colleagues who have allowed us to      
interface, adapt or use parts of their codes:                            
  Ed Valeev, F. Pavosevic, A. Kumar             : LibInt (2-el integral package), F12 methods 
  Garnet Chan, S. Sharma, J. Yang, R. Olivares  : DMRG                   
  Ulf Ekstrom                                   : XCFun DFT Library      
  Mihaly Kallay                                 : mrcc  (arbitrary order and MRCC methods)
  Frank Weinhold                                : gennbo (NPA and NBO analysis)           
  Simon Mueller                                 : openCOSMO-RS                            
  Christopher J. Cramer and Donald G. Truhlar   : smd solvation model                     
  S Lehtola, MJT Oliveira, MAL Marques          : LibXC Library                           
  Liviu Ungur et al                             : ANISO software                          


 Your calculation uses the libint2 library for the computation of 2-el integrals
 For citations please refer to: http://libint.valeyev.net

 Your ORCA version has been built with support for libXC version: 7.0.0
 For citations please refer to: https://libxc.gitlab.io

 This ORCA versions uses:
   CBLAS   interface :  Fast vector & matrix operations
   LAPACKE interface :  Fast linear algebra routines
   Shared memory     :  Shared parallel matrices


  ***********************************
  * Starting time: Sun Jun 21 20:10:40 2026
  * Host name:     DESKTOP-C6QA775
  * Process ID:    9104
  * Working dir.:  C:\Users\Oswaldo\Desktop\results
  ***********************************

NOTE: MaxCore=3000 MB was set to SCF,MP2,MDCI,CIPSI,MRCI,RASCI and CIS
      => If you want to overwrite this, your respective input block should be placed after the MaxCore statement
Warning: RI is on but no J-basis has been assigned. Assigning Def2/J (nothing to worry about!)
================================================================================

----- Orbital basis set information -----
Your calculation utilizes the basis: def2-SVP
   F. Weigend and R. Ahlrichs, Phys. Chem. Chem. Phys. 7, 3297 (2005).

----- AuxJ basis set information -----
Your calculation utilizes the auxiliary basis: def2/J
   H-Rn: F. Weigend, Phys. Chem. Chem. Phys. 8, 1057 (2006).
   Fr-Lr: K. Eichkorn, F. Weigend, O. Treutler, R. Ahlrichs; Theor. Chem. Acc. 97, 119 (1997).

================================================================================
                                        WARNINGS
                       Please study these warnings very carefully!
================================================================================


WARNING: Geometry Optimization
  ===> : Switching off AutoStart
         For restart on a previous wavefunction, please use MOREAD

================================================================================
                                       INPUT FILE
================================================================================
NAME = DFT_calculations.inp
|  1> ! B3LYP def2-SVP Opt Freq TightSCF
|  2> 
|  3> %pal nprocs 4 end
|  4> %maxcore 3000
|  5> 
|  6> * xyz 0 1
|  7> C      6.597811    2.806038   -0.453174
|  8> N      5.681085    1.778744    0.026559
|  9> C      5.726620    0.574313   -0.822942
| 10> C      5.400034   -0.761277   -0.100780
| 11> N      4.547662   -0.694048    1.091588
| 12> C      3.116390   -0.874136    0.828885
| 13> C      2.457098    0.156101   -0.099322
| 14> C      0.942923   -0.039224   -0.171912
| 15> O      0.669494   -1.321618   -0.736672
| 16> C     -0.631788   -1.736125   -0.793619
| 17> C     -1.736584   -0.930946   -0.507591
| 18> C     -3.062110   -1.439159   -0.580927
| 19> C     -4.232996   -0.699080   -0.312928
| 20> N     -4.111806    0.685497   -0.007230
| 21> C     -5.084174    1.547413    0.549594
| 22> C     -6.075457    1.097784    1.431849
| 23> C     -6.981459    1.985869    2.022591
| 24> C     -6.886039    3.348137    1.755317
| 25> O     -7.768671    4.219162    2.330567
| 26> C     -5.882216    3.822000    0.909965
| 27> Cl    -5.711703    5.506107    0.569363
| 28> C     -4.981095    2.928165    0.322500
| 29> N     -5.456113   -1.256982   -0.359597
| 30> C     -5.516545   -2.547419   -0.696669
| 31> N     -4.477892   -3.334741   -0.990614
| 32> C     -3.265678   -2.778739   -0.927174
| 33> C     -2.158585   -3.563081   -1.217643
| 34> C     -0.841058   -3.065517   -1.177851
| 35> C      0.305481   -3.999090   -1.481439
| 36> O      0.037597   -4.763162   -2.653991
| 37> C      4.849927    0.462660    1.952758
| 38> C      5.939512    1.425720    1.427189
| 39> H      7.644287    2.484735   -0.401352
| 40> H      6.368071    3.071477   -1.491042
| 41> H      6.490709    3.722308    0.137685
| 42> H      6.717884    0.455809   -1.280992
| 43> H      5.018486    0.722894   -1.645798
| 44> H      6.356688   -1.184135    0.236527
| 45> H      5.013807   -1.489271   -0.825313
| 46> H      2.972787   -1.878370    0.409591
| 47> H      2.586511   -0.891463    1.790452
| 48> H      2.659711    1.175973    0.243489
| 49> H      2.868696    0.049915   -1.108807
| 50> H      0.514409    0.037810    0.834746
| 51> H      0.520998    0.742756   -0.814146
| 52> H     -1.597507    0.102124   -0.205593
| 53> H     -3.605175    1.136244   -0.763101
| 54> H     -6.152811    0.041104    1.677154
| 55> H     -7.741880    1.592021    2.689924
| 56> H     -8.405284    3.721816    2.869003
| 57> H     -4.197447    3.318895   -0.320723
| 58> H     -6.501972   -2.998477   -0.739241
| 59> H     -2.323525   -4.607891   -1.482917
| 60> H      1.243678   -3.465426   -1.657453
| 61> H      0.456280   -4.686764   -0.643153
| 62> H     -0.291471   -4.140684   -3.324844
| 63> H      3.945682    1.052980    2.149653
| 64> H      5.171456    0.079621    2.928699
| 65> H      6.931705    0.968433    1.539053
| 66> H      5.925561    2.326201    2.053423
| 67> *
| 68> 
| 69>                          ****END OF INPUT****
================================================================================

                       *****************************
                       * Geometry Optimization Run *
                       *****************************

Geometry optimization settings:
Update method            Update   .... BFGS
Choice of coordinates    CoordSys .... (2022) Redundant Internals
Initial Hessian          InHess   .... Almloef's Model
Max. no of cycles        MaxIter  .... 180

Convergence Tolerances:
Energy Change            TolE     ....  5.0000e-06 Eh
Max. Gradient            TolMAXG  ....  3.0000e-04 Eh/bohr
RMS Gradient             TolRMSG  ....  1.0000e-04 Eh/bohr
Max. Displacement        TolMAXD  ....  4.0000e-03 bohr
RMS Displacement         TolRMSD  ....  2.0000e-03 bohr
Strict Convergence                .... False

------------------------------------------------------------------------------
                        ORCA OPTIMIZATION COORDINATE SETUP
------------------------------------------------------------------------------

The optimization will be done in redundant internal coordinates (2022)
Making redundant internal coordinates   ...  (2022 redundants) done
Evaluating the initial hessian          ...  (Almloef) done
Evaluating the coordinates              ...  done
Calculating the B-matrix                .... done
Calculating the G-matrix                .... done
The number of degrees of freedom        ....  310

    -----------------------------------------------------------------
                    Redundant Internal Coordinates


    -----------------------------------------------------------------
         Definition                    Initial Value    Approx d2E/dq
    -----------------------------------------------------------------
      1. B(N   1,C   0)                  1.4580         0.435844   
      2. B(C   2,N   1)                  1.4746         0.410145   
      3. B(C   3,C   2)                  1.5531         0.343239   
      4. B(N   4,C   3)                  1.4672         0.421348   
      5. B(C   5,N   4)                  1.4663         0.422836   
      6. B(C   6,C   5)                  1.5355         0.366163   
      7. B(C   7,C   6)                  1.5284         0.375714   
      8. B(O   8,C   7)                  1.4277         0.487270   
      9. B(C   9,O   8)                  1.3669         0.609176   
     10. B(C  10,C   9)                  1.3967         0.609663   
     11. B(C  11,C  10)                  1.4215         0.556511   
     12. B(C  12,C  11)                  1.4109         0.578714   
     13. B(N  13,C  12)                  1.4231         0.495540   
     14. B(C  14,N  13)                  1.4137         0.513001   
     15. B(C  15,C  14)                  1.4011         0.599752   
     16. B(C  16,C  15)                  1.3995         0.603438   
     17. B(C  17,C  16)                  1.3915         0.621328   
     18. B(O  18,C  17)                  1.3670         0.608977   
     19. B(C  19,C  17)                  1.3953         0.612778   
     20. B(Cl 20,C  19)                  1.7266         0.407043   
     21. B(C  21,C  19)                  1.3986         0.605371   
     22. B(C  21,C  14)                  1.4031         0.595453   
     23. B(N  22,C  12)                  1.3452         0.659811   
     24. B(C  23,N  22)                  1.3351         0.684639   
     25. B(N  24,C  23)                  1.3361         0.682212   
     26. B(C  25,N  24)                  1.3352         0.684518   
     27. B(C  25,C  11)                  1.3985         0.605589   
     28. B(C  26,C  25)                  1.3875         0.630508   
     29. B(C  27,C  26)                  1.4089         0.582864   
     30. B(C  27,C   9)                  1.3995         0.603280   
     31. B(C  28,C  27)                  1.5094         0.402949   
     32. B(O  29,C  28)                  1.4249         0.492193   
     33. B(C  30,N   4)                  1.4734         0.411901   
     34. B(C  31,C  30)                  1.5463         0.351920   
     35. B(C  31,N   1)                  1.4674         0.421150   
     36. B(H  32,C   0)                  1.0959         0.352358   
     37. B(H  33,C   0)                  1.0956         0.352727   
     38. B(H  34,C   0)                  1.0955         0.352888   
     39. B(H  35,C   2)                  1.0984         0.349172   
     40. B(H  36,C   2)                  1.0957         0.352600   
     41. B(H  37,C   3)                  1.0990         0.348406   
     42. B(H  38,C   3)                  1.0973         0.350555   
     43. B(H  39,C   5)                  1.0977         0.350074   
     44. B(H  40,C   5)                  1.0980         0.349625   
     45. B(H  41,C   6)                  1.0949         0.353733   
     46. B(H  42,C   6)                  1.0953         0.353117   
     47. B(H  43,C   7)                  1.0968         0.351246   
     48. B(H  44,C   7)                  1.0963         0.351800   
     49. B(H  45,C  10)                  1.0853         0.366432   
     50. B(H  46,N  13)                  1.0155         0.424092   
     51. B(H  47,C  15)                  1.0875         0.363377   
     52. B(H  48,C  16)                  1.0857         0.365867   
     53. B(H  49,O  18)                  0.9708         0.499646   
     54. B(H  50,C  21)                  1.0865         0.364743   
     55. B(H  51,C  23)                  1.0846         0.367330   
     56. B(H  52,C  26)                  1.0905         0.359431   
     57. B(H  53,C  28)                  1.0936         0.355351   
     58. B(H  54,C  28)                  1.0947         0.353941   
     59. B(H  55,O  29)                  0.9725         0.496571   
     60. B(H  56,C  30)                  1.0977         0.350081   
     61. B(H  57,C  30)                  1.0966         0.351457   
     62. B(H  58,C  31)                  1.0982         0.349397   
     63. B(H  59,C  31)                  1.0969         0.351063   
     64. A(H  33,C   0,H  34)          106.7251         0.288979   
     65. A(N   1,C   0,H  34)          110.5099         0.329566   
     66. A(H  32,C   0,H  34)          108.2440         0.288931   
     67. A(N   1,C   0,H  32)          112.2253         0.329484   
     68. A(H  32,C   0,H  33)          108.4242         0.288911   
     69. A(N   1,C   0,H  33)          110.5203         0.329541   
     70. A(C   2,N   1,C  31)          110.3619         0.372200   
     71. A(C   0,N   1,C   2)          111.5016         0.374407   
     72. A(C   0,N   1,C  31)          111.8908         0.376123   
     73. A(C   3,C   2,H  36)          109.2631         0.318754   
     74. A(N   1,C   2,H  36)          107.5727         0.326235   
     75. A(N   1,C   2,H  35)          110.8692         0.325711   
     76. A(H  35,C   2,H  36)          106.5409         0.288484   
     77. A(C   3,C   2,H  35)          106.9123         0.318246   
     78. A(N   1,C   2,C   3)          115.3439         0.361630   
     79. A(C   2,C   3,H  37)          106.8915         0.318132   
     80. A(C   2,C   3,N   4)          117.4285         0.363298   
     81. A(N   4,C   3,H  37)          105.8965         0.327041   
     82. A(H  37,C   3,H  38)          104.7011         0.288122   
     83. A(C   2,C   3,H  38)          109.7262         0.318452   
     84. A(N   4,C   3,H  38)          111.2542         0.327373   
     85. A(C   5,N   4,C  30)          113.6647         0.372731   
     86. A(C   3,N   4,C   5)          114.5721         0.374191   
     87. A(C   3,N   4,C  30)          113.0648         0.372504   
     88. A(N   4,C   5,C   6)          116.4250         0.367564   
     89. A(C   6,C   5,H  40)          109.4368         0.321694   
     90. A(N   4,C   5,H  40)          108.4266         0.327420   
     91. A(N   4,C   5,H  39)          107.9688         0.327489   
     92. A(C   6,C   5,H  39)          109.0720         0.321762   
     93. A(H  39,C   5,H  40)          104.8884         0.288218   
     94. A(C   7,C   6,H  42)          108.4277         0.323581   
     95. A(C   5,C   6,C   7)          111.6130         0.362463   
     96. A(H  41,C   6,H  42)          108.0192         0.289137   
     97. A(C   5,C   6,H  42)          109.3138         0.322218   
     98. A(C   7,C   6,H  41)          108.4962         0.323674   
     99. A(C   5,C   6,H  41)          110.8714         0.322310   
    100. A(C   6,C   7,O   8)          108.8631         0.378333   
    101. A(O   8,C   7,H  43)          110.5692         0.335456   
    102. A(H  43,C   7,H  44)          109.7066         0.288649   
    103. A(C   6,C   7,H  43)          109.5415         0.323299   
    104. A(C   6,C   7,H  44)          108.5374         0.323383   
    105. A(O   8,C   7,H  44)          109.5873         0.335544   
    106. A(C   7,O   8,C   9)          118.1121         0.409121   
    107. A(O   8,C   9,C  10)          124.7291         0.428570   
    108. A(C  10,C   9,C  27)          119.0483         0.430635   
    109. A(O   8,C   9,C  27)          116.2211         0.427762   
    110. A(C  11,C  10,H  45)          118.3060         0.347552   
    111. A(C   9,C  10,H  45)          120.2911         0.352946   
    112. A(C   9,C  10,C  11)          121.3951         0.424452   
    113. A(C  12,C  11,C  25)          115.3842         0.426922   
    114. A(C  10,C  11,C  25)          119.4038         0.423943   
    115. A(C  10,C  11,C  12)          125.2074         0.420520   
    116. A(N  13,C  12,N  22)          119.2361         0.416203   
    117. A(C  11,C  12,N  22)          122.0370         0.430710   
    118. A(C  11,C  12,N  13)          118.7176         0.409269   
    119. A(C  12,N  13,C  14)          128.2605         0.398085   
    120. A(C  14,N  13,H  46)          111.4522         0.346177   
    121. A(C  12,N  13,H  46)          108.3280         0.344169   
    122. A(N  13,C  14,C  15)          122.6153         0.414408   
    123. A(C  15,C  14,C  21)          118.0137         0.428365   
    124. A(N  13,C  14,C  21)          119.0590         0.413879   
    125. A(C  14,C  15,C  16)          121.3439         0.429390   
    126. A(C  14,C  15,H  47)          120.2749         0.351471   
    127. A(C  16,C  15,H  47)          118.3804         0.351835   
    128. A(C  17,C  16,H  48)          121.4151         0.353988   
    129. A(C  15,C  16,H  48)          118.8617         0.352242   
    130. A(C  15,C  16,C  17)          119.7211         0.432124   
    131. A(O  18,C  17,C  19)          120.2043         0.428937   
    132. A(C  16,C  17,C  19)          119.8799         0.433319   
    133. A(C  16,C  17,O  18)          119.9135         0.430005   
    134. A(C  17,O  18,H  49)          109.2906         0.366463   
    135. A(Cl 20,C  19,C  21)          118.4808         0.419026   
    136. A(C  17,C  19,C  21)          120.0645         0.431297   
    137. A(C  17,C  19,Cl 20)          121.4538         0.419936   
    138. A(C  14,C  21,C  19)          120.9039         0.429082   
    139. A(C  19,C  21,H  50)          118.9169         0.352249   
    140. A(C  14,C  21,H  50)          120.1786         0.351266   
    141. A(C  12,N  22,C  23)          116.7944         0.441039   
    142. A(N  22,C  23,N  24)          126.1517         0.443710   
    143. A(N  24,C  23,H  51)          116.9115         0.357670   
    144. A(N  22,C  23,H  51)          116.9364         0.357886   
    145. A(C  23,N  24,C  25)          116.7414         0.443696   
    146. A(N  24,C  25,C  26)          118.6250         0.440315   
    147. A(C  11,C  25,C  26)          118.4997         0.433542   
    148. A(C  11,C  25,N  24)          122.8753         0.437123   
    149. A(C  27,C  26,H  52)          119.1218         0.349136   
    150. A(C  25,C  26,H  52)          118.1536         0.353803   
    151. A(C  25,C  26,C  27)          122.7241         0.430572   
    152. A(C  26,C  27,C  28)          119.0926         0.397655   
    153. A(C   9,C  27,C  28)          121.9477         0.400070   
    154. A(C   9,C  27,C  26)          118.8840         0.427177   
    155. A(H  53,C  28,H  54)          108.1566         0.289450   
    156. A(O  29,C  28,H  54)          108.6140         0.336445   
    157. A(C  27,C  28,H  54)          109.8255         0.327452   
    158. A(O  29,C  28,H  53)          106.8881         0.336667   
    159. A(C  27,C  28,H  53)          112.4702         0.327667   
    160. A(C  27,C  28,O  29)          110.7541         0.383622   
    161. A(C  28,O  29,H  55)          106.7398         0.353040   
    162. A(H  56,C  30,H  57)          105.6490         0.288455   
    163. A(C  31,C  30,H  57)          108.2666         0.319887   
    164. A(N   4,C  30,H  57)          107.8239         0.326290   
    165. A(C  31,C  30,H  56)          107.8484         0.319682   
    166. A(N   4,C  30,H  56)          110.9796         0.326080   
    167. A(N   4,C  30,C  31)          115.7761         0.363441   
    168. A(H  58,C  31,H  59)          107.1673         0.288316   
    169. A(C  30,C  31,H  59)          107.9559         0.319828   
    170. A(N   1,C  31,H  59)          110.1939         0.327426   
    171. A(C  30,C  31,H  58)          110.0396         0.319580   
    172. A(N   1,C  31,H  58)          110.8865         0.327169   
    173. A(N   1,C  31,C  30)          110.4983         0.364824   
    174. D(C  31,N   1,C   0,H  32)     60.3545         0.016196   
    175. D(C   2,N   1,C   0,H  34)    175.2808         0.016196   
    176. D(C  31,N   1,C   0,H  33)   -178.4818         0.016196   
    177. D(C   2,N   1,C   0,H  32)    -63.7931         0.016196   
    178. D(C   2,N   1,C   0,H  33)     57.3706         0.016196   
    179. D(C   3,C   2,N   1,C   0)    150.8324         0.014350   
    180. D(H  35,C   2,N   1,C   0)     29.1601         0.014350   
    181. D(H  35,C   2,N   1,C  31)    -95.8446         0.014350   
    182. D(H  36,C   2,N   1,C   0)    -86.9655         0.014350   
    183. D(C   3,C   2,N   1,C  31)     25.8276         0.014350   
    184. D(H  37,C   3,C   2,H  35)     31.1309         0.010000   
    185. D(H  37,C   3,C   2,H  36)    146.0588         0.010000   
    186. D(N   4,C   3,C   2,H  36)    -95.2493         0.010000   
    187. D(H  37,C   3,C   2,N   1)    -92.6490         0.010000   
    188. D(N   4,C   3,C   2,H  35)    149.8228         0.010000   
    189. D(N   4,C   3,C   2,N   1)     26.0429         0.010000   
    190. D(C  30,N   4,C   3,H  37)     79.3715         0.015138   
    191. D(C  30,N   4,C   3,C   2)    -39.8495         0.015138   
    192. D(C   5,N   4,C   3,H  37)   -148.2211         0.015138   
    193. D(C   5,N   4,C   3,C   2)     92.5580         0.015138   
    194. D(C   5,N   4,C   3,H  38)    -35.0238         0.015138   
    195. D(H  39,C   5,N   4,C   3)     62.1129         0.015244   
    196. D(H  39,C   5,N   4,C  30)   -165.7648         0.015244   
    197. D(H  40,C   5,N   4,C   3)    175.2395         0.015244   
    198. D(C   6,C   5,N   4,C   3)    -60.8953         0.015244   
    199. D(C   6,C   5,N   4,C  30)     71.2270         0.015244   
    200. D(H  41,C   6,C   5,N   4)    -52.4732         0.010732   
    201. D(C   7,C   6,C   5,H  40)    -50.2111         0.010732   
    202. D(C   7,C   6,C   5,N   4)   -173.5549         0.010732   
    203. D(H  41,C   6,C   5,H  39)   -174.9061         0.010732   
    204. D(C   7,C   6,C   5,H  39)     64.0121         0.010732   
    205. D(H  41,C   6,C   5,H  40)     70.8707         0.010732   
    206. D(H  43,C   7,C   6,H  42)    178.5499         0.011264   
    207. D(H  43,C   7,C   6,H  41)    -64.3675         0.011264   
    208. D(H  43,C   7,C   6,C   5)     58.0865         0.011264   
    209. D(O   8,C   7,C   6,H  42)     57.5366         0.011264   
    210. D(O   8,C   7,C   6,C   5)    -62.9269         0.011264   
    211. D(O   8,C   7,C   6,H  41)    174.6192         0.011264   
    212. D(C   9,O   8,C   7,H  44)    -66.4176         0.018743   
    213. D(C   9,O   8,C   7,H  43)     54.6346         0.018743   
    214. D(C   9,O   8,C   7,C   6)    175.0160         0.018743   
    215. D(C  27,C   9,O   8,C   7)   -171.3522         0.027159   
    216. D(C  10,C   9,O   8,C   7)      9.0932         0.027159   
    217. D(H  45,C  10,C   9,C  27)    179.8599         0.025669   
    218. D(H  45,C  10,C   9,O   8)     -0.5973         0.025669   
    219. D(C  11,C  10,C   9,C  27)      0.8885         0.025669   
    220. D(C  11,C  10,C   9,O   8)   -179.5686         0.025669   
    221. D(C  25,C  11,C  10,H  45)   -178.0228         0.021204   
    222. D(C  25,C  11,C  10,C   9)      0.9684         0.021204   
    223. D(C  12,C  11,C  10,H  45)      1.1588         0.021204   
    224. D(C  12,C  11,C  10,C   9)   -179.8500         0.021204   
    225. D(N  22,C  12,C  11,C  25)      1.4294         0.023005   
    226. D(N  22,C  12,C  11,C  10)   -177.7814         0.023005   
    227. D(N  13,C  12,C  11,C  25)   -177.4528         0.023005   
    228. D(N  13,C  12,C  11,C  10)      3.3364         0.023005   
    229. D(H  46,N  13,C  12,N  22)   -123.5946         0.019403   
    230. D(H  46,N  13,C  12,C  11)     55.3195         0.019403   
    231. D(C  14,N  13,C  12,N  22)     15.1608         0.019403   
    232. D(C  14,N  13,C  12,C  11)   -165.9250         0.019403   
    233. D(C  21,C  14,N  13,H  46)    -18.4883         0.020842   
    234. D(C  21,C  14,N  13,C  12)   -156.2347         0.020842   
    235. D(C  15,C  14,N  13,H  46)    168.0572         0.020842   
    236. D(C  15,C  14,N  13,C  12)     30.3108         0.020842   
    237. D(H  47,C  15,C  14,C  21)   -176.6141         0.024796   
    238. D(H  47,C  15,C  14,N  13)     -3.0947         0.024796   
    239. D(C  16,C  15,C  14,C  21)      3.0624         0.024796   
    240. D(C  16,C  15,C  14,N  13)    176.5818         0.024796   
    241. D(H  48,C  16,C  15,H  47)     -1.1318         0.025118   
    242. D(H  48,C  16,C  15,C  14)    179.1857         0.025118   
    243. D(C  17,C  16,C  15,H  47)    178.3490         0.025118   
    244. D(C  17,C  16,C  15,C  14)     -1.3335         0.025118   
    245. D(C  19,C  17,C  16,H  48)    178.9310         0.026720   
    246. D(C  19,C  17,C  16,C  15)     -0.5362         0.026720   
    247. D(O  18,C  17,C  16,H  48)     -0.5113         0.026720   
    248. D(O  18,C  17,C  16,C  15)   -179.9785         0.026720   
    249. D(H  49,O  18,C  17,C  19)    178.8544         0.027140   
    250. D(H  49,O  18,C  17,C  16)     -1.7050         0.027140   
    251. D(C  21,C  19,C  17,O  18)   -179.9718         0.025947   
    252. D(C  21,C  19,C  17,C  16)      0.5875         0.025947   
    253. D(Cl 20,C  19,C  17,O  18)      0.3741         0.025947   
    254. D(Cl 20,C  19,C  17,C  16)   -179.0666         0.025947   
    255. D(H  50,C  21,C  19,Cl 20)      0.5815         0.025289   
    256. D(H  50,C  21,C  19,C  17)   -179.0828         0.025289   
    257. D(C  14,C  21,C  19,Cl 20)   -179.1123         0.025289   
    258. D(C  14,C  21,C  19,C  17)      1.2235         0.025289   
    259. D(H  50,C  21,C  14,C  15)    177.3119         0.024423   
    260. D(H  50,C  21,C  14,N  13)      3.5558         0.024423   
    261. D(C  19,C  21,C  14,C  15)     -2.9982         0.024423   
    262. D(C  19,C  21,C  14,N  13)   -176.7544         0.024423   
    263. D(C  23,N  22,C  12,N  13)    177.7187         0.032255   
    264. D(C  23,N  22,C  12,C  11)     -1.1579         0.032255   
    265. D(H  51,C  23,N  22,C  12)   -179.7399         0.034956   
    266. D(N  24,C  23,N  22,C  12)      0.0367         0.034956   
    267. D(C  25,N  24,C  23,H  51)   -179.5018         0.034686   
    268. D(C  25,N  24,C  23,N  22)      0.7215         0.034686   
    269. D(C  26,C  25,N  24,C  23)    179.6505         0.034942   
    270. D(C  11,C  25,N  24,C  23)     -0.3698         0.034942   
    271. D(C  26,C  25,C  11,C  12)    179.3456         0.025308   
    272. D(C  26,C  25,C  11,C  10)     -1.3946         0.025308   
    273. D(N  24,C  25,C  11,C  12)     -0.6341         0.025308   
    274. D(N  24,C  25,C  11,C  10)    178.6257         0.025308   
    275. D(H  52,C  26,C  25,N  24)     -0.2686         0.027566   
    276. D(H  52,C  26,C  25,C  11)    179.7508         0.027566   
    277. D(C  27,C  26,C  25,N  24)    179.9824         0.027566   
    278. D(C  27,C  26,C  25,C  11)      0.0018         0.027566   
    279. D(C  28,C  27,C  26,H  52)     -0.9980         0.023351   
    280. D(C  28,C  27,C  26,C  25)    178.7487         0.023351   
    281. D(C   9,C  27,C  26,H  52)   -177.8954         0.023351   
    282. D(C   9,C  27,C  26,C  25)      1.8512         0.023351   
    283. D(C  28,C  27,C   9,C  10)   -179.0471         0.025104   
    284. D(C  28,C  27,C   9,O   8)      1.3717         0.025104   
    285. D(C  26,C  27,C   9,C  10)     -2.2423         0.025104   
    286. D(C  26,C  27,C   9,O   8)    178.1765         0.025104   
    287. D(H  54,C  28,C  27,C   9)    103.5044         0.012042   
    288. D(H  53,C  28,C  27,C  26)    166.2034         0.012042   
    289. D(H  53,C  28,C  27,C   9)    -16.9982         0.012042   
    290. D(O  29,C  28,C  27,C  26)     46.6708         0.012042   
    291. D(O  29,C  28,C  27,C   9)   -136.5309         0.012042   
    292. D(H  55,O  29,C  28,H  54)    167.2027         0.019134   
    293. D(H  55,O  29,C  28,H  53)    -76.3170         0.019134   
    294. D(H  55,O  29,C  28,C  27)     46.5160         0.019134   
    295. D(H  57,C  30,N   4,C   3)   -118.4282         0.014472   
    296. D(H  56,C  30,N   4,C   5)     -6.5386         0.014472   
    297. D(H  56,C  30,N   4,C   3)    126.3102         0.014472   
    298. D(C  31,C  30,N   4,C   5)   -129.8853         0.014472   
    299. D(C  31,C  30,N   4,C   3)      2.9635         0.014472   
    300. D(C  30,C  31,N   1,C   0)    173.2714         0.015123   
    301. D(H  58,C  31,C  30,H  57)     47.0022         0.010000   
    302. D(H  58,C  31,C  30,H  56)    160.8747         0.010000   
    303. D(H  58,C  31,C  30,N   4)    -74.1521         0.010000   
    304. D(N   1,C  31,C  30,H  57)    169.7887         0.010000   
    305. D(N   1,C  31,C  30,H  56)    -76.3389         0.010000   
    306. D(N   1,C  31,C  30,N   4)     48.6344         0.010000   
    307. D(H  59,C  31,N   1,C   0)     54.0500         0.015123   
    308. D(H  58,C  31,N   1,C   2)     60.3452         0.015123   
    309. D(H  58,C  31,N   1,C   0)    -64.4375         0.015123   
    310. D(C  30,C  31,N   1,C   2)    -61.9459         0.015123   
    -----------------------------------------------------------------

Number of atoms                         .... 60
Number of degrees of freedom            .... 310


         *************************************************************
         *                GEOMETRY OPTIMIZATION CYCLE   1            *
         *************************************************************
---------------------------------
CARTESIAN COORDINATES (ANGSTROEM)
---------------------------------
  C      6.597811    2.806038   -0.453174
  N      5.681085    1.778744    0.026559
  C      5.726620    0.574313   -0.822942
  C      5.400034   -0.761277   -0.100780
  N      4.547662   -0.694048    1.091588
  C      3.116390   -0.874136    0.828885
  C      2.457098    0.156101   -0.099322
  C      0.942923   -0.039224   -0.171912
  O      0.669494   -1.321618   -0.736672
  C     -0.631788   -1.736125   -0.793619
  C     -1.736584   -0.930946   -0.507591
  C     -3.062110   -1.439159   -0.580927
  C     -4.232996   -0.699080   -0.312928
  N     -4.111806    0.685497   -0.007230
  C     -5.084174    1.547413    0.549594
  C     -6.075457    1.097784    1.431849
  C     -6.981459    1.985869    2.022591
  C     -6.886039    3.348137    1.755317
  O     -7.768671    4.219162    2.330567
  C     -5.882216    3.822000    0.909965
  Cl    -5.711703    5.506107    0.569363
  C     -4.981095    2.928165    0.322500
  N     -5.456113   -1.256982   -0.359597
  C     -5.516545   -2.547419   -0.696669
  N     -4.477892   -3.334741   -0.990614
  C     -3.265678   -2.778739   -0.927174
  C     -2.158585   -3.563081   -1.217643
  C     -0.841058   -3.065517   -1.177851
  C      0.305481   -3.999090   -1.481439
  O      0.037597   -4.763162   -2.653991
  C      4.849927    0.462660    1.952758
  C      5.939512    1.425720    1.427189
  H      7.644287    2.484735   -0.401352
  H      6.368071    3.071477   -1.491042
  H      6.490709    3.722308    0.137685
  H      6.717884    0.455809   -1.280992
  H      5.018486    0.722894   -1.645798
  H      6.356688   -1.184135    0.236527
  H      5.013807   -1.489271   -0.825313
  H      2.972787   -1.878370    0.409591
  H      2.586511   -0.891463    1.790452
  H      2.659711    1.175973    0.243489
  H      2.868696    0.049915   -1.108807
  H      0.514409    0.037810    0.834746
  H      0.520998    0.742756   -0.814146
  H     -1.597507    0.102124   -0.205593
  H     -3.605175    1.136244   -0.763101
  H     -6.152811    0.041104    1.677154
  H     -7.741880    1.592021    2.689924
  H     -8.405284    3.721816    2.869003
  H     -4.197447    3.318895   -0.320723
  H     -6.501972   -2.998477   -0.739241
  H     -2.323525   -4.607891   -1.482917
  H      1.243678   -3.465426   -1.657453
  H      0.456280   -4.686764   -0.643153
  H     -0.291471   -4.140684   -3.324844
  H      3.945682    1.052980    2.149653
  H      5.171456    0.079621    2.928699
  H      6.931705    0.968433    1.539053
  H      5.925561    2.326201    2.053423

----------------------------
CARTESIAN COORDINATES (A.U.)
----------------------------
  NO LB      ZA    FRAG     MASS         X           Y           Z
   0 C     6.0000    0    12.011   12.468056    5.302643   -0.856375
   1 N     7.0000    0    14.007   10.735695    3.361339    0.050189
   2 C     6.0000    0    12.011   10.821743    1.085294   -1.555135
   3 C     6.0000    0    12.011   10.204585   -1.438605   -0.190447
   4 N     7.0000    0    14.007    8.593836   -1.311561    2.062802
   5 C     6.0000    0    12.011    5.889124   -1.651878    1.566366
   6 C     6.0000    0    12.011    4.643242    0.294988   -0.187691
   7 C     6.0000    0    12.011    1.781866   -0.074123   -0.324867
   8 O     8.0000    0    15.999    1.265160   -2.497496   -1.392108
   9 C     6.0000    0    12.011   -1.193906   -3.280801   -1.499723
  10 C     6.0000    0    12.011   -3.281668   -1.759233   -0.959208
  11 C     6.0000    0    12.011   -5.786549   -2.719616   -1.097793
  12 C     6.0000    0    12.011   -7.999203   -1.321070   -0.591348
  13 N     7.0000    0    14.007   -7.770187    1.295402   -0.013663
  14 C     6.0000    0    12.011   -9.607696    2.924187    1.038582
  15 C     6.0000    0    12.011  -11.480950    2.074511    2.705802
  16 C     6.0000    0    12.011  -13.193046    3.752749    3.822143
  17 C     6.0000    0    12.011  -13.012728    6.327062    3.317068
  18 O     8.0000    0    15.999  -14.680661    7.973061    4.404133
  19 C     6.0000    0    12.011  -11.115777    7.222533    1.719585
  20 Cl   17.0000    0    35.453  -10.793554   10.405034    1.075940
  21 C     6.0000    0    12.011   -9.412905    5.533430    0.609437
  22 N     7.0000    0    14.007  -10.310559   -2.375352   -0.679540
  23 C     6.0000    0    12.011  -10.424759   -4.813924   -1.316514
  24 N     7.0000    0    14.007   -8.461990   -6.301747   -1.871989
  25 C     6.0000    0    12.011   -6.171237   -5.251056   -1.752105
  26 C     6.0000    0    12.011   -4.079134   -6.733247   -2.301012
  27 C     6.0000    0    12.011   -1.589369   -5.792988   -2.225816
  28 C     6.0000    0    12.011    0.577275   -7.557185   -2.799514
  29 O     8.0000    0    15.999    0.071048   -9.001072   -5.015316
  30 C     6.0000    0    12.011    9.165034    0.874301    3.690178
  31 C     6.0000    0    12.011   11.224051    2.694220    2.696996
  32 H     1.0000    0     1.008   14.445609    4.695469   -0.758445
  33 H     1.0000    0     1.008   12.033910    5.804250   -2.817661
  34 H     1.0000    0     1.008   12.265662    7.034143    0.260187
  35 H     1.0000    0     1.008   12.694961    0.861354   -2.420724
  36 H     1.0000    0     1.008    9.483564    1.366072   -3.110107
  37 H     1.0000    0     1.008   12.012399   -2.237691    0.446971
  38 H     1.0000    0     1.008    9.474722   -2.814314   -1.559616
  39 H     1.0000    0     1.008    5.617753   -3.549605    0.774015
  40 H     1.0000    0     1.008    4.887797   -1.684621    3.383464
  41 H     1.0000    0     1.008    5.026125    2.222267    0.460128
  42 H     1.0000    0     1.008    5.421050    0.094326   -2.095342
  43 H     1.0000    0     1.008    0.972092    0.071451    1.577441
  44 H     1.0000    0     1.008    0.984544    1.403605   -1.538513
  45 H     1.0000    0     1.008   -3.018851    0.192986   -0.388514
  46 H     1.0000    0     1.008   -6.812793    2.147190   -1.442052
  47 H     1.0000    0     1.008  -11.627128    0.077675    3.169362
  48 H     1.0000    0     1.008  -14.630033    3.008484    5.083220
  49 H     1.0000    0     1.008  -15.883685    7.033213    5.421630
  50 H     1.0000    0     1.008   -7.932025    6.271803   -0.606079
  51 H     1.0000    0     1.008  -12.286946   -5.666300   -1.396963
  52 H     1.0000    0     1.008   -4.390826   -8.707652   -2.802307
  53 H     1.0000    0     1.008    2.350211   -6.548706   -3.132132
  54 H     1.0000    0     1.008    0.862244   -8.856700   -1.215383
  55 H     1.0000    0     1.008   -0.550800   -7.824759   -6.283045
  56 H     1.0000    0     1.008    7.456258    1.989844    4.062255
  57 H     1.0000    0     1.008    9.772636    0.150462    5.534439
  58 H     1.0000    0     1.008   13.099024    1.830073    2.908389
  59 H     1.0000    0     1.008   11.197687    4.395883    3.880407

--------------------------------
INTERNAL COORDINATES (ANGSTROEM)
--------------------------------
 C      0   0   0     0.000000000000     0.00000000     0.00000000
 N      1   0   0     1.458034043773     0.00000000     0.00000000
 C      2   1   0     1.474577708697   111.50160403     0.00000000
 C      3   2   1     1.553054093630   115.34389142   150.83239615
 N      4   3   2     1.467242042830   117.42846960    26.04292237
 C      5   4   3     1.466282405247   114.57210570    92.55795004
 C      6   5   4     1.535455128710   116.42498128   299.10473566
 C      7   6   5     1.528445973644   111.61297461   186.44509821
 O      8   7   6     1.427673508502   108.86313737   297.07314744
 C      9   8   7     1.366892043060   118.11207390   175.01595009
 C     10   9   8     1.396674421775   124.72910083     9.09323533
 C     11  10   9     1.421505469191   121.39509640   180.43136890
 C     12  11  10     1.410855915832   125.20735525   180.14995647
 N     13  12  11     1.423092320348   118.71760771     3.33637374
 C     14  13  12     1.413666044530   128.26046803   194.07495261
 C     15  14  13     1.401136006516   122.61532262    30.31084472
 C     16  15  14     1.399468006706   121.34392718   176.58178681
 C     17  16  15     1.391515171064   119.72108086   358.66648099
 O     18  17  16     1.366980746225   119.91350773   180.02148411
 C     18  17  16     1.395287340300   119.87985653   359.46384325
 Cl    20  18  17     1.726644373640   121.45382600   180.93342313
 C     20  18  17     1.398597579753   120.06452497     0.58751068
 N     13  12  11     1.345157177751   122.03698931   182.21861166
 C     23  13  12     1.335101947709   116.79437865   358.84212095
 N     24  23  13     1.336068729189   126.15172899     0.03667080
 C     25  24  23     1.335150043778   116.74137242     0.72151908
 C     26  25  24     1.387522801101   118.62499311   179.65054701
 C     10   9   8     1.399539657312   116.22113390   188.64777250
 C     28  10   9     1.509395872061   121.94767745     1.37167336
 O     29  28  10     1.424937209615   110.75407635   223.46910276
 C      5   4   3     1.473414841920   113.06477238   320.15050038
 C      2   1   3     1.467370047331   111.89084785   124.14761209
 H      1   2   3     1.095916582623   112.22528251   296.20692363
 H      1   2   3     1.095631468946   110.52028482    57.37058209
 H      1   2   3     1.095507147026   110.50993148   175.28083438
 H      3   2   1     1.098388509687   110.86921921    29.16014025
 H      3   2   1     1.095729014060   107.57270122   273.03447284
 H      4   3   2     1.098986704255   106.89154602   267.35103064
 H      4   3   2     1.097312456711   109.72624066   154.35686099
 H      6   5   4     1.097686297082   107.96881568    62.11292324
 H      6   5   4     1.098036008089   108.42663482   175.23948750
 H      7   6   5     1.094856294622   110.87139855   307.52684854
 H      7   6   5     1.095330244915   109.31378428    66.50198431
 H      8   7   6     1.096776556239   109.54146709    58.08648151
 H      8   7   6     1.096347543793   108.53742439   177.84935644
 H     11  10   9     1.085255190650   120.29113999   359.40273901
 H     14  13  12     1.015474665765   108.32795345    55.31950704
 H     16  15  14     1.087534278421   120.27493590   356.90526615
 H     17  16  15     1.085674756653   118.86170209   179.18569017
 H     19  18  17     0.970846270828   109.29060259   358.29495429
 H     22  20  18     1.086512746604   118.91686094   180.91716929
 H     24  23  13     1.084588432022   116.93644509   180.26007249
 H     27  26  25     1.090506045273   118.15364116   359.73135736
 H     29  28  10     1.093614101912   112.47019683   343.00178810
 H     29  28  10     1.094695979016   109.82545211   103.50438637
 H     30  29  28     0.972526789717   106.73983958    46.51600381
 H     31   5   4     1.097681357886   110.97964310   126.31018965
 H     31   5   4     1.096613244879   107.82389868   241.57175193
 H     32   2   1     1.098213050421   110.88648628   295.56251313
 H     32   2   1     1.096918267018   110.19387840    54.04995721

---------------------------
INTERNAL COORDINATES (A.U.)
---------------------------
 C      0   0   0     0.000000000000     0.00000000     0.00000000
 N      1   0   0     2.755285036665     0.00000000     0.00000000
 C      2   1   0     2.786548032623   111.50160403     0.00000000
 C      3   2   1     2.934846908125   115.34389142   150.83239615
 N      4   3   2     2.772685633125   117.42846960    26.04292237
 C      5   4   3     2.770872180904   114.57210570    92.55795004
 C      6   5   4     2.901589684187   116.42498128   299.10473566
 C      7   6   5     2.888344300683   111.61297461   186.44509821
 O      8   7   6     2.697911939722   108.86313737   297.07314744
 C      9   8   7     2.583051616020   118.11207390   175.01595009
 C     10   9   8     2.639332155408   124.72910083     9.09323533
 C     11  10   9     2.686256034643   121.39509640   180.43136890
 C     12  11  10     2.666131295345   125.20735525   180.14995647
 N     13  12  11     2.689254748744   118.71760771     3.33637374
 C     14  13  12     2.671441668985   128.26046803   194.07495261
 C     15  14  13     2.647763328691   122.61532262    30.31084472
 C     16  15  14     2.644611265859   121.34392718   176.58178681
 C     17  16  15     2.629582584507   119.72108086   358.66648099
 O     18  17  16     2.583219240708   119.91350773   180.02148411
 C     18  17  16     2.636710951295   119.87985653   359.46384325
 Cl    20  18  17     3.262884996855   121.45382600   180.93342313
 C     20  18  17     2.642966397298   120.06452497     0.58751068
 N     13  12  11     2.541978673027   122.03698931   182.21861166
 C     23  13  12     2.522977042035   116.79437865   358.84212095
 N     24  23  13     2.524803994264   126.15172899     0.03667080
 C     25  24  23     2.523067930433   116.74137242     0.72151908
 C     26  25  24     2.622038098651   118.62499311   179.65054701
 C     10   9   8     2.644746665881   116.22113390   188.64777250
 C     28  10   9     2.852344825866   121.94767745     1.37167336
 O     29  28  10     2.692741084205   110.75407635   223.46910276
 C      5   4   3     2.784350532883   113.06477238   320.15050038
 C      2   1   3     2.772927526575   111.89084785   124.14761209
 H      1   2   3     2.070982206781   112.22528251   296.20692363
 H      1   2   3     2.070443420014   110.52028482    57.37058209
 H      1   2   3     2.070208485633   110.50993148   175.28083438
 H      3   2   1     2.075653471954   110.86921921    29.16014025
 H      3   2   1     2.070627753565   107.57270122   273.03447284
 H      4   3   2     2.076783895862   106.89154602   267.35103064
 H      4   3   2     2.073620026525   109.72624066   154.35686099
 H      6   5   4     2.074326482443   107.96881568    62.11292324
 H      6   5   4     2.074987340471   108.42663482   175.23948750
 H      7   6   5     2.068978552836   110.87139855   307.52684854
 H      7   6   5     2.069874189090   109.31378428    66.50198431
 H      8   7   6     2.072607321397   109.54146709    58.08648151
 H      8   7   6     2.071796605366   108.53742439   177.84935644
 H     11  10   9     2.050835095745   120.29113999   359.40273901
 H     14  13  12     1.918969014231   108.32795345    55.31950704
 H     16  15  14     2.055141947468   120.27493590   356.90526615
 H     17  16  15     2.051627960586   118.86170209   179.18569017
 H     19  18  17     1.834633570004   109.29060259   358.29495429
 H     22  20  18     2.053211532096   118.91686094   180.91716929
 H     24  23  13     2.049575104542   116.93644509   180.26007249
 H     27  26  25     2.060757772951   118.15364116   359.73135736
 H     29  28  10     2.066631148808   112.47019683   343.00178810
 H     29  28  10     2.068675600244   109.82545211   103.50438637
 H     30  29  28     1.837809290467   106.73983958    46.51600381
 H     31   5   4     2.074317148715   110.97964310   126.31018965
 H     31   5   4     2.072298707651   107.82389868   241.57175193
 H     32   2   1     2.075321901993   110.88648628   295.56251313
 H     32   2   1     2.072875115960   110.19387840    54.04995721

---------------------
BASIS SET INFORMATION
---------------------
There are 5 groups of distinct atoms

 Group   1 Type C   : 7s4p1d contracted to 3s2p1d pattern {511/31/1}
 Group   2 Type N   : 7s4p1d contracted to 3s2p1d pattern {511/31/1}
 Group   3 Type O   : 7s4p1d contracted to 3s2p1d pattern {511/31/1}
 Group   4 Type Cl  : 10s7p1d contracted to 4s3p1d pattern {5311/511/1}
 Group   5 Type H   : 4s1p contracted to 2s1p pattern {31/1}

Atom   0C    basis set group =>   1
Atom   1N    basis set group =>   2
Atom   2C    basis set group =>   1
Atom   3C    basis set group =>   1
Atom   4N    basis set group =>   2
Atom   5C    basis set group =>   1
Atom   6C    basis set group =>   1
Atom   7C    basis set group =>   1
Atom   8O    basis set group =>   3
Atom   9C    basis set group =>   1
Atom  10C    basis set group =>   1
Atom  11C    basis set group =>   1
Atom  12C    basis set group =>   1
Atom  13N    basis set group =>   2
Atom  14C    basis set group =>   1
Atom  15C    basis set group =>   1
Atom  16C    basis set group =>   1
Atom  17C    basis set group =>   1
Atom  18O    basis set group =>   3
Atom  19C    basis set group =>   1
Atom  20Cl   basis set group =>   4
Atom  21C    basis set group =>   1
Atom  22N    basis set group =>   2
Atom  23C    basis set group =>   1
Atom  24N    basis set group =>   2
Atom  25C    basis set group =>   1
Atom  26C    basis set group =>   1
Atom  27C    basis set group =>   1
Atom  28C    basis set group =>   1
Atom  29O    basis set group =>   3
Atom  30C    basis set group =>   1
Atom  31C    basis set group =>   1
Atom  32H    basis set group =>   5
Atom  33H    basis set group =>   5
Atom  34H    basis set group =>   5
Atom  35H    basis set group =>   5
Atom  36H    basis set group =>   5
Atom  37H    basis set group =>   5
Atom  38H    basis set group =>   5
Atom  39H    basis set group =>   5
Atom  40H    basis set group =>   5
Atom  41H    basis set group =>   5
Atom  42H    basis set group =>   5
Atom  43H    basis set group =>   5
Atom  44H    basis set group =>   5
Atom  45H    basis set group =>   5
Atom  46H    basis set group =>   5
Atom  47H    basis set group =>   5
Atom  48H    basis set group =>   5
Atom  49H    basis set group =>   5
Atom  50H    basis set group =>   5
Atom  51H    basis set group =>   5
Atom  52H    basis set group =>   5
Atom  53H    basis set group =>   5
Atom  54H    basis set group =>   5
Atom  55H    basis set group =>   5
Atom  56H    basis set group =>   5
Atom  57H    basis set group =>   5
Atom  58H    basis set group =>   5
Atom  59H    basis set group =>   5
---------------------------------
AUXILIARY/J BASIS SET INFORMATION
---------------------------------
There are 5 groups of distinct atoms

 Group   1 Type C   : 12s5p4d2f1g contracted to 6s4p3d1f1g pattern {711111/2111/211/2/1}
 Group   2 Type N   : 12s5p4d2f1g contracted to 6s4p3d1f1g pattern {711111/2111/211/2/1}
 Group   3 Type O   : 12s5p4d2f1g contracted to 6s4p3d1f1g pattern {711111/2111/211/2/1}
 Group   4 Type Cl  : 14s5p5d2f1g contracted to 8s4p3d1f1g pattern {71111111/2111/311/2/1}
 Group   5 Type H   : 5s2p1d contracted to 3s1p1d pattern {311/2/1}

Atom   0C    basis set group =>   1
Atom   1N    basis set group =>   2
Atom   2C    basis set group =>   1
Atom   3C    basis set group =>   1
Atom   4N    basis set group =>   2
Atom   5C    basis set group =>   1
Atom   6C    basis set group =>   1
Atom   7C    basis set group =>   1
Atom   8O    basis set group =>   3
Atom   9C    basis set group =>   1
Atom  10C    basis set group =>   1
Atom  11C    basis set group =>   1
Atom  12C    basis set group =>   1
Atom  13N    basis set group =>   2
Atom  14C    basis set group =>   1
Atom  15C    basis set group =>   1
Atom  16C    basis set group =>   1
Atom  17C    basis set group =>   1
Atom  18O    basis set group =>   3
Atom  19C    basis set group =>   1
Atom  20Cl   basis set group =>   4
Atom  21C    basis set group =>   1
Atom  22N    basis set group =>   2
Atom  23C    basis set group =>   1
Atom  24N    basis set group =>   2
Atom  25C    basis set group =>   1
Atom  26C    basis set group =>   1
Atom  27C    basis set group =>   1
Atom  28C    basis set group =>   1
Atom  29O    basis set group =>   3
Atom  30C    basis set group =>   1
Atom  31C    basis set group =>   1
Atom  32H    basis set group =>   5
Atom  33H    basis set group =>   5
Atom  34H    basis set group =>   5
Atom  35H    basis set group =>   5
Atom  36H    basis set group =>   5
Atom  37H    basis set group =>   5
Atom  38H    basis set group =>   5
Atom  39H    basis set group =>   5
Atom  40H    basis set group =>   5
Atom  41H    basis set group =>   5
Atom  42H    basis set group =>   5
Atom  43H    basis set group =>   5
Atom  44H    basis set group =>   5
Atom  45H    basis set group =>   5
Atom  46H    basis set group =>   5
Atom  47H    basis set group =>   5
Atom  48H    basis set group =>   5
Atom  49H    basis set group =>   5
Atom  50H    basis set group =>   5
Atom  51H    basis set group =>   5
Atom  52H    basis set group =>   5
Atom  53H    basis set group =>   5
Atom  54H    basis set group =>   5
Atom  55H    basis set group =>   5
Atom  56H    basis set group =>   5
Atom  57H    basis set group =>   5
Atom  58H    basis set group =>   5
Atom  59H    basis set group =>   5


           ************************************************************
           *        Program running with 4 parallel MPI-processes     *
           *              working on a common directory               *
           ************************************************************
------------------------------------------------------------------------------
                             ORCA STARTUP CALCULATIONS
                           -- RI-GTO INTEGRALS CHOSEN --
------------------------------------------------------------------------------
------------------------------------------------------------------------------
                   ___                                                        
                  /   \      - P O W E R E D   B Y -                         
                 /     \                                                     
                 |  |  |   _    _      __       _____    __    __             
                 |  |  |  | |  | |    /  \     |  _  \  |  |  /  |          
                  \  \/   | |  | |   /    \    | | | |  |  | /  /          
                 / \  \   | |__| |  /  /\  \   | |_| |  |  |/  /          
                |  |  |   |  __  | /  /__\  \  |    /   |      \           
                |  |  |   | |  | | |   __   |  |    \   |  |\   \          
                \     /   | |  | | |  |  |  |  | |\  \  |  | \   \       
                 \___/    |_|  |_| |__|  |__|  |_| \__\ |__|  \__/        
                                                                              
                      - O R C A' S   B I G   F R I E N D -                    
                                      &                                       
                       - I N T E G R A L  F E E D E R -                       
                                                                              
 v1 FN, 2020, v2 2021, v3 2022-2024                                           
------------------------------------------------------------------------------


----------------------
SHARK INTEGRAL PACKAGE
----------------------

Number of atoms                             ...     60
Number of basis functions                   ...    592
Number of shells                            ...    278
Maximum angular momentum                    ...      2
Integral batch strategy                     ... SHARK/LIBINT Hybrid
RI-J (if used) integral strategy            ... SPLIT-RIJ (Revised 2003 algorithm where possible)
Printlevel                                  ...      1
Contraction scheme used                     ... SEGMENTED contraction
Prescreening option                         ... SCHWARTZ
   Thresh                                   ... 2.500e-11
   Tcut                                     ... 2.500e-12
   Tpresel                                  ... 2.500e-12 
Coulomb Range Separation                    ... NOT USED
Exchange Range Separation                   ... NOT USED
Multipole approximations                    ... NOT USED
Finite Nucleus Model                        ... NOT USED
CABS basis                                  ... NOT available
Auxiliary Coulomb fitting basis             ... AVAILABLE
   # of basis functions in Aux-J            ...   1878
   # of shells in Aux-J                     ...    622
   Maximum angular momentum in Aux-J        ...      4
Auxiliary J/K fitting basis                 ... NOT available
Auxiliary Correlation fitting basis         ... NOT available
Auxiliary 'external' fitting basis          ... NOT available

Checking pre-screening integrals            ... done (  0.0 sec) Dimension = 278
   => SHARK Basis and OBASIS are compatible. Storing Pre-screening
Shell pair information
Shell pair cut-off parameter TPreSel        ...   2.5e-12
Total number of shell pairs                 ...     38781
Shell pairs after pre-screening             ...     19700
Total number of primitive shell pairs       ...    141225
Primitive shell pairs kept                  ...     44815
          la=0 lb=0:   6306 shell pairs
          la=1 lb=0:   7429 shell pairs
          la=1 lb=1:   2237 shell pairs
          la=2 lb=0:   2221 shell pairs
          la=2 lb=1:   1307 shell pairs
          la=2 lb=2:    200 shell pairs

Checking whether 4 symmetric matrices of dimension 592 fit in memory
:Max Core in MB      =   3000.00
 MB in use           =     22.48
 MB left             =   2977.52
 MB needed           =      5.36
 Data fit in memory  = YES
Calculating RI/J V-Matrix + Cholesky decomp.... done (  0.6 sec)
Calculating Nuclear repulsion               ... done (  0.0 sec) ENN=   3157.983455293919 Eh

Diagonalization of the overlap matrix:
Smallest eigenvalue                        ... 1.878e-04
Time for diagonalization                   ...    0.090 sec
Threshold for overlap eigenvalues          ... 1.000e-07
Number of eigenvalues below threshold      ... 0
Time for construction of square roots      ...    0.027 sec
Total time needed                          ...    0.121 sec

-------------------
DFT GRID GENERATION
-------------------

General Integration Accuracy     IntAcc      ... 4.388
Radial Grid Type                 RadialGrid  ... OptM3 with GC (2021)
Angular Grid (max. ang.)         AngularGrid ... 4 (Lebedev-302)
Angular grid pruning method      GridPruning ... 4 (adaptive)
Weight generation scheme         WeightScheme... mBecke (2022)
Basis function cutoff            BFCut       ... 1.0000e-11
Integration weight cutoff        WCut        ... 1.0000e-14
Partially contracted basis set               ... off
Rotationally invariant grid construction     ... off
Angular grids for H and He will be reduced by one unit

Total number of grid points                  ...   281086
Total number of batches                      ...     4421
Average number of points per batch           ...       63
Average number of grid points per atom       ...     4685

--------------------
COSX GRID GENERATION
--------------------

GRIDX 1
-------
General Integration Accuracy     IntAcc      ... 3.816
Radial Grid Type                 RadialGrid  ... OptM3 with GC (2021)
Angular Grid (max. ang.)         AngularGrid ... 1 (Lebedev-50)
Angular grid pruning method      GridPruning ... 4 (adaptive)
Weight generation scheme         WeightScheme... mBecke (2022)
Basis function cutoff            BFCut       ... 1.0000e-11
Integration weight cutoff        WCut        ... 1.0000e-14
Partially contracted basis set               ... on
Rotationally invariant grid construction     ... off
Angular grids for H and He will be reduced by one unit

Total number of grid points                  ...    36754
Total number of batches                      ...      329
Average number of points per batch           ...      111
Average number of grid points per atom       ...      613
UseSFitting                                  ... on

GRIDX 2
-------
General Integration Accuracy     IntAcc      ... 4.020
Radial Grid Type                 RadialGrid  ... OptM3 with GC (2021)
Angular Grid (max. ang.)         AngularGrid ... 2 (Lebedev-110)
Angular grid pruning method      GridPruning ... 4 (adaptive)
Weight generation scheme         WeightScheme... mBecke (2022)
Basis function cutoff            BFCut       ... 1.0000e-11
Integration weight cutoff        WCut        ... 1.0000e-14
Partially contracted basis set               ... on
Rotationally invariant grid construction     ... off
Angular grids for H and He will be reduced by one unit

Total number of grid points                  ...    76683
Total number of batches                      ...      634
Average number of points per batch           ...      120
Average number of grid points per atom       ...     1278
UseSFitting                                  ... on

GRIDX 3
-------
General Integration Accuracy     IntAcc      ... 4.338
Radial Grid Type                 RadialGrid  ... OptM3 with GC (2021)
Angular Grid (max. ang.)         AngularGrid ... 3 (Lebedev-194)
Angular grid pruning method      GridPruning ... 4 (adaptive)
Weight generation scheme         WeightScheme... mBecke (2022)
Basis function cutoff            BFCut       ... 1.0000e-11
Integration weight cutoff        WCut        ... 1.0000e-14
Partially contracted basis set               ... on
Rotationally invariant grid construction     ... off
Angular grids for H and He will be reduced by one unit

Total number of grid points                  ...   167758
Total number of batches                      ...     1340
Average number of points per batch           ...      125
Average number of grid points per atom       ...     2796
UseSFitting                                  ... on
Grids setup in   5.9 sec
Initializing property integral containers    ... done (  0.0 sec)

SHARK setup successfully completed in   7.0 seconds

Maximum memory used throughout the entire STARTUP-calculation: 83.1 MB


           ************************************************************
           *        Program running with 4 parallel MPI-processes     *
           *              working on a common directory               *
           ************************************************************
-------------------------------------------------------------------------------
                                 ORCA GUESS
                   Start orbitals & Density for SCF / CASSCF
-------------------------------------------------------------------------------

------------
SCF SETTINGS
------------
Hamiltonian:
 Density Functional     Method          .... DFT(GTOs)
 Exchange Functional    Exchange        .... B88
   X-Alpha parameter    XAlpha          ....  0.666667
   Becke's b parameter  XBeta           ....  0.004200
 Correlation Functional Correlation     .... LYP
 LDA part of GGA corr.  LDAOpt          .... VWN-5
 Gradients option       PostSCFGGA      .... off
 Hybrid DFT is turned on
   Fraction HF Exchange ScalHFX         ....  0.200000
   Scaling of DF-GGA-X  ScalDFX         ....  0.720000
   Scaling of DF-GGA-C  ScalDFC         ....  0.810000
   Scaling of DF-LDA-C  ScalLDAC        ....  1.000000
   Perturbative correction              ....  0.000000
   NL short-range parameter             ....  4.800000
 RI-approximation to the Coulomb term is turned on
   Number of AuxJ basis functions       .... 1878
   RIJ-COSX (HFX calculated with COS-X)).... on


General Settings:
 Integral files         IntName         .... DFT_calculations
 Hartree-Fock type      HFTyp           .... RHF
 Total Charge           Charge          ....    0
 Multiplicity           Mult            ....    1
 Number of Electrons    NEL             ....  242
 Basis Dimension        Dim             ....  592
 Nuclear Repulsion      ENuc            ....   3157.9834552939 Eh

Convergence Acceleration:
 AO-DIIS                CNVDIIS         .... on
   Start iteration      DIISMaxIt       ....    12
   Startup error        DIISStart       ....  0.200000
   # of expansion vecs  DIISMaxEq       ....     5
   Bias factor          DIISBfac        ....   1.050
   Max. coefficient     DIISMaxC        ....  10.000
 MO-DIIS                CNVKDIIS        .... off
 Trust-Rad. Augm. Hess. CNVTRAH         .... auto
   Auto Start mean grad. ratio tolernc. ....  1.125000
   Auto Start start iteration           ....    50
   Auto Start num. interpolation iter.  ....    10
   Max. Number of Micro iterations      ....    24
   Max. Number of Macro iterations      .... Maxiter - #DIIS iter
   Number of Davidson start vectors     ....     2
   Converg. threshold    (grad. norm)   ....   1.000e-05
   Grad. Scal. Fac. for Micro threshold ....   0.100
   Minimum threshold for Micro iter.    ....   1.000e-02
   NR start threshold (gradient norm)   ....   1.000e-04
   Initial trust radius                 ....   0.400
   Minimum AH scaling param. (alpha)    ....   1.000
   Maximum AH scaling param. (alpha)    .... 1000.000
   Quad. conv. algorithm                .... NR
   White noise on init. David. guess    .... on
   Maximum white noise                  ....   0.010
   Pseudo random numbers                .... off
   Inactive MOs                         .... canonical
   Orbital update algorithm             .... Taylor
   Preconditioner                       .... Diag
   Full preconditioner red. dimension   ....   250
 SOSCF                 CNVSOSCF           .... on
   Start iteration     SOSCFMaxIt         ....   150
   Startup grad/error  SOSCFStart         ....  0.003300
   Hessian update      SOSCFHessUp        .... L-BFGS
   Autom. constraints  SOSCFAutoConstrain .... off
 Level Shifting         CNVShift        .... on
   Level shift para.    LevelShift      ....    0.2500
   Turn off err/grad.   ShiftErr        ....    0.0010
 Zerner damping         CNVZerner       .... off
 Static damping         CNVDamp         .... on
   Fraction old density DampFac         ....    0.7000
   Max. Damping (<1)    DampMax         ....    0.9800
   Min. Damping (>=0)   DampMin         ....    0.0000
   Turn off err/grad.   DampErr         ....    0.1000

SCF Procedure:
 Maximum # iterations   MaxIter         ....   125
 SCF integral mode      SCFMode         .... Direct
   Integral package                     .... SHARK and LIBINT hybrid scheme
 Reset frequency        DirectResetFreq ....    20
 Integral Threshold     Thresh          ....  2.500e-11 Eh
 Primitive CutOff       TCut            ....  2.500e-12 Eh

Convergence Tolerance:
 Convergence Check Mode ConvCheckMode   .... Total+1el-Energy
 Convergence forced     ConvForced      .... 0
 Energy Change          TolE            ....  1.000e-08 Eh
 1-El. energy change                    ....  1.000e-05 Eh
 Orbital Gradient       TolG            ....  1.000e-05
 Orbital Rotation angle TolX            ....  1.000e-05
 DIIS Error             TolErr          ....  5.000e-07

------------------------------
INITIAL GUESS: MODEL POTENTIAL
------------------------------
Loading Hartree-Fock densities                     ... done
Calculating cut-offs                               ... done
Initializing the effective Hamiltonian             ... done
Setting up the integral package (SHARK)            ... done
Starting the Coulomb interaction                   ... done (   0.9 sec)
Making the grid                                    ... done (   0.8 sec)
Mapping shells                                     ... done
Starting the XC term evaluation                    ... done (   0.6 sec)
  promolecular density results
     # of electrons  =    241.976058404
     EX              =   -211.704901110
     EC              =     -8.386207120
     EX+EC           =   -220.091108230
Transforming the Hamiltonian                       ... done (   0.0 sec)
Diagonalizing the Hamiltonian                      ... done (   0.1 sec)
Back transforming the eigenvectors                 ... done (   0.0 sec)
Now organizing SCF variables                       ... done
                      ------------------
                      INITIAL GUESS DONE (   2.4 sec)
                      ------------------
             **** ENERGY FILE WAS UPDATED (DFT_calculations.en.tmp) ****
Finished Guess after   2.7 sec
Maximum memory used throughout the entire GUESS-calculation: 33.0 MB


           ************************************************************
           *        Program running with 4 parallel MPI-processes     *
           *              working on a common directory               *
           ************************************************************

-------------------------------------------------------------------------------------------
                                      ORCA LEAN-SCF
                              memory conserving SCF solver
-------------------------------------------------------------------------------------------

----------------------------------------D-I-I-S--------------------------------------------
Iteration    Energy (Eh)           Delta-E    RMSDP     MaxDP     DIISErr   Damp  Time(sec)
-------------------------------------------------------------------------------------------
               ***  Starting incremental Fock matrix formation  ***
    1    -1850.1390768024989484     0.00e+00  4.03e-03  8.34e-02  2.32e-01  0.700  13.8
    2    -1850.4609280465115262    -3.22e-01  2.82e-03  5.36e-02  9.66e-02  0.700   6.9
                               ***Turning on AO-DIIS***
    3    -1850.5925789964817341    -1.32e-01  1.24e-03  1.64e-02  3.64e-02  0.700   6.9
    4    -1850.6707840653239145    -7.82e-02  2.30e-03  3.58e-02  1.92e-02  0.000   6.7
    5    -1850.8408841926025161    -1.70e-01  3.64e-04  7.12e-03  6.22e-03  0.000   6.6
                              *** Initializing SOSCF ***
---------------------------------------S-O-S-C-F--------------------------------------
Iteration    Energy (Eh)           Delta-E    RMSDP     MaxDP     MaxGrad    Time(sec)
--------------------------------------------------------------------------------------
    6    -1850.8417441610413334    -8.60e-04  1.38e-04  3.55e-03  1.87e-03     6.1
               *** Restarting incremental Fock matrix formation ***
    7    -1850.8416837661475256     6.04e-05  1.06e-04  2.33e-03  2.93e-04    13.6
    8    -1850.8416750202909498     8.75e-06  4.39e-05  1.24e-03  4.66e-04     9.2
    9    -1850.8416989767151790    -2.40e-05  2.53e-05  7.10e-04  1.48e-04     7.9
   10    -1850.8416974072229095     1.57e-06  1.42e-05  4.62e-04  2.39e-04     7.6
   11    -1850.8416997828048807    -2.38e-06  5.85e-06  1.19e-04  2.19e-05     6.7
   12    -1850.8416997618728601     2.09e-08  3.38e-06  6.81e-05  2.96e-05     6.0
   13    -1850.8416998418101684    -7.99e-08  1.66e-06  5.10e-05  5.26e-06     5.7
   14    -1850.8416998226534815     1.92e-08  1.01e-06  3.00e-05  8.34e-06     5.1
   15    -1850.8416998375246294    -1.49e-08  3.11e-07  7.54e-06  1.15e-06     4.5
                  *** Gradient check signals convergence ***

               *****************************************************
               *                     SUCCESS                       *
               *           SCF CONVERGED AFTER  15 CYCLES          *
               *****************************************************

[...]
** The dipole moment derivative (T) already includes vibrational overlap.

The first frequency considered to be a vibration is 6
The total number of vibrations considered is 174


--------------------------
THERMOCHEMISTRY AT 298.15K
--------------------------

Temperature         ...   298.15 K
Pressure            ...     1.00 atm
Total Mass          ...   457.96 AMU
Quasi RRHO          ...     True
Cut-Off Frequency   ...     1.00 cm^-1

Throughout the following assumptions are being made:
  (1) The electronic state is orbitally nondegenerate
  (2) There are no thermally accessible electronically excited states
  (3) Hindered rotations indicated by low frequency modes are not
      treated as such but are treated as vibrations and this may
      cause some error
  (4) All equations used are the standard statistical mechanics
      equations for an ideal gas
  (5) All vibrations are strictly harmonic

freq.       9.40  E(vib)   ...       0.58 
freq.      13.56  E(vib)   ...       0.57 
freq.      18.63  E(vib)   ...       0.57 
freq.      24.07  E(vib)   ...       0.56 
freq.      28.12  E(vib)   ...       0.55 
freq.      40.72  E(vib)   ...       0.54 
freq.      48.79  E(vib)   ...       0.53 
freq.      52.20  E(vib)   ...       0.52 
freq.      84.34  E(vib)   ...       0.48 
freq.      87.92  E(vib)   ...       0.48 
freq.     110.37  E(vib)   ...       0.45 
freq.     120.97  E(vib)   ...       0.44 
freq.     126.70  E(vib)   ...       0.43 
freq.     133.39  E(vib)   ...       0.42 
freq.     145.76  E(vib)   ...       0.41 
freq.     164.14  E(vib)   ...       0.39 
freq.     176.58  E(vib)   ...       0.38 
freq.     182.55  E(vib)   ...       0.37 
freq.     187.32  E(vib)   ...       0.36 
freq.     204.86  E(vib)   ...       0.35 
freq.     209.63  E(vib)   ...       0.34 
freq.     221.90  E(vib)   ...       0.33 
freq.     258.70  E(vib)   ...       0.30 
freq.     259.72  E(vib)   ...       0.30 
freq.     268.83  E(vib)   ...       0.29 
freq.     273.84  E(vib)   ...       0.28 
freq.     328.96  E(vib)   ...       0.24 
freq.     334.78  E(vib)   ...       0.24 
freq.     349.11  E(vib)   ...       0.23 
freq.     354.65  E(vib)   ...       0.22 
freq.     357.75  E(vib)   ...       0.22 
freq.     363.96  E(vib)   ...       0.22 
freq.     373.56  E(vib)   ...       0.21 
freq.     384.09  E(vib)   ...       0.20 
freq.     388.79  E(vib)   ...       0.20 
freq.     416.67  E(vib)   ...       0.18 
freq.     418.89  E(vib)   ...       0.18 
freq.     430.93  E(vib)   ...       0.18 
freq.     439.32  E(vib)   ...       0.17 
freq.     453.30  E(vib)   ...       0.16 
freq.     465.85  E(vib)   ...       0.16 
freq.     494.05  E(vib)   ...       0.14 
freq.     503.04  E(vib)   ...       0.14 
freq.     517.68  E(vib)   ...       0.13 
freq.     542.33  E(vib)   ...       0.12 
freq.     564.77  E(vib)   ...       0.11 
freq.     571.13  E(vib)   ...       0.11 
freq.     577.99  E(vib)   ...       0.11 
freq.     611.94  E(vib)   ...       0.10 
freq.     614.82  E(vib)   ...       0.10 
freq.     647.48  E(vib)   ...       0.09 
freq.     647.69  E(vib)   ...       0.09 
freq.     665.09  E(vib)   ...       0.08 
freq.     700.39  E(vib)   ...       0.07 
freq.     714.37  E(vib)   ...       0.07 
freq.     721.04  E(vib)   ...       0.07 
freq.     727.82  E(vib)   ...       0.06 
freq.     756.03  E(vib)   ...       0.06 
freq.     795.35  E(vib)   ...       0.05 
freq.     800.47  E(vib)   ...       0.05 
freq.     805.60  E(vib)   ...       0.05 
freq.     808.22  E(vib)   ...       0.05 
freq.     822.05  E(vib)   ...       0.05 
freq.     839.72  E(vib)   ...       0.04 
freq.     843.70  E(vib)   ...       0.04 
freq.     849.76  E(vib)   ...       0.04 
freq.     876.00  E(vib)   ...       0.04 
freq.     879.71  E(vib)   ...       0.04 
freq.     892.16  E(vib)   ...       0.03 
freq.     906.30  E(vib)   ...       0.03 
freq.     923.13  E(vib)   ...       0.03 
freq.     940.03  E(vib)   ...       0.03 
freq.     946.42  E(vib)   ...       0.03 
freq.     957.08  E(vib)   ...       0.03 
freq.     982.76  E(vib)   ...       0.02 
freq.     987.90  E(vib)   ...       0.02 
freq.     993.81  E(vib)   ...       0.02 
freq.    1003.31  E(vib)   ...       0.02 
freq.    1004.23  E(vib)   ...       0.02 
freq.    1059.21  E(vib)   ...       0.02 
freq.    1066.42  E(vib)   ...       0.02 
freq.    1071.83  E(vib)   ...       0.02 
freq.    1072.67  E(vib)   ...       0.02 
freq.    1081.20  E(vib)   ...       0.02 
freq.    1083.96  E(vib)   ...       0.02 
freq.    1093.91  E(vib)   ...       0.02 
freq.    1098.44  E(vib)   ...       0.02 
freq.    1113.97  E(vib)   ...       0.01 
freq.    1140.54  E(vib)   ...       0.01 
freq.    1143.28  E(vib)   ...       0.01 
freq.    1152.01  E(vib)   ...       0.01 
freq.    1176.67  E(vib)   ...       0.01 
freq.    1182.24  E(vib)   ...       0.01 
freq.    1186.01  E(vib)   ...       0.01 
freq.    1201.87  E(vib)   ...       0.01 
freq.    1202.93  E(vib)   ...       0.01 
freq.    1215.62  E(vib)   ...       0.01 
freq.    1232.64  E(vib)   ...       0.01 
freq.    1236.48  E(vib)   ...       0.01 
freq.    1254.77  E(vib)   ...       0.01 
freq.    1259.54  E(vib)   ...       0.01 
freq.    1262.17  E(vib)   ...       0.01 
freq.    1272.62  E(vib)   ...       0.01 
freq.    1275.87  E(vib)   ...       0.01 
freq.    1285.60  E(vib)   ...       0.01 
freq.    1292.56  E(vib)   ...       0.01 
freq.    1313.84  E(vib)   ...       0.01 
freq.    1314.80  E(vib)   ...       0.01 
freq.    1326.59  E(vib)   ...       0.01 
freq.    1337.44  E(vib)   ...       0.01 
freq.    1345.88  E(vib)   ...       0.01 
freq.    1356.52  E(vib)   ...       0.01 
freq.    1357.48  E(vib)   ...       0.01 
freq.    1364.49  E(vib)   ...       0.01 
freq.    1379.53  E(vib)   ...       0.01 
freq.    1382.00  E(vib)   ...       0.01 
freq.    1386.14  E(vib)   ...       0.00 
freq.    1387.64  E(vib)   ...       0.00 
freq.    1400.68  E(vib)   ...       0.00 
freq.    1404.38  E(vib)   ...       0.00 
freq.    1408.17  E(vib)   ...       0.00 
freq.    1408.77  E(vib)   ...       0.00 
freq.    1414.30  E(vib)   ...       0.00 
freq.    1429.18  E(vib)   ...       0.00 
freq.    1433.81  E(vib)   ...       0.00 
freq.    1440.41  E(vib)   ...       0.00 
freq.    1442.83  E(vib)   ...       0.00 
freq.    1458.30  E(vib)   ...       0.00 
freq.    1460.87  E(vib)   ...       0.00 
freq.    1461.86  E(vib)   ...       0.00 
freq.    1466.29  E(vib)   ...       0.00 
freq.    1467.46  E(vib)   ...       0.00 
freq.    1476.29  E(vib)   ...       0.00 
freq.    1482.94  E(vib)   ...       0.00 
freq.    1487.69  E(vib)   ...       0.00 
freq.    1488.12  E(vib)   ...       0.00 
freq.    1496.79  E(vib)   ...       0.00 
freq.    1500.31  E(vib)   ...       0.00 
freq.    1537.35  E(vib)   ...       0.00 
freq.    1548.50  E(vib)   ...       0.00 
freq.    1582.09  E(vib)   ...       0.00 
freq.    1616.83  E(vib)   ...       0.00 
freq.    1627.22  E(vib)   ...       0.00 
freq.    1644.62  E(vib)   ...       0.00 
freq.    1673.11  E(vib)   ...       0.00 
freq.    1682.29  E(vib)   ...       0.00 
freq.    2888.94  E(vib)   ...       0.00 
freq.    2892.99  E(vib)   ...       0.00 
freq.    2909.99  E(vib)   ...       0.00 
freq.    2958.12  E(vib)   ...       0.00 
freq.    2982.05  E(vib)   ...       0.00 
freq.    2995.76  E(vib)   ...       0.00 
freq.    3000.60  E(vib)   ...       0.00 
freq.    3006.73  E(vib)   ...       0.00 
freq.    3026.10  E(vib)   ...       0.00 
freq.    3030.03  E(vib)   ...       0.00 
freq.    3049.03  E(vib)   ...       0.00 
freq.    3053.74  E(vib)   ...       0.00 
freq.    3056.93  E(vib)   ...       0.00 
freq.    3060.16  E(vib)   ...       0.00 
freq.    3062.25  E(vib)   ...       0.00 
freq.    3072.52  E(vib)   ...       0.00 
freq.    3085.63  E(vib)   ...       0.00 
freq.    3100.04  E(vib)   ...       0.00 
freq.    3101.97  E(vib)   ...       0.00 
freq.    3142.98  E(vib)   ...       0.00 
freq.    3156.05  E(vib)   ...       0.00 
freq.    3179.21  E(vib)   ...       0.00 
freq.    3201.29  E(vib)   ...       0.00 
freq.    3215.04  E(vib)   ...       0.00 
freq.    3257.53  E(vib)   ...       0.00 
freq.    3646.45  E(vib)   ...       0.00 
freq.    3801.09  E(vib)   ...       0.00 
freq.    3820.82  E(vib)   ...       0.00 

------------
INNER ENERGY
------------

The inner energy is: U= E(el) + E(ZPE) + E(vib) + E(rot) + E(trans)
    E(el)   - is the total energy from the electronic structure calculation
              = E(kin-el) + E(nuc-el) + E(el-el) + E(nuc-nuc)
    E(ZPE)  - the the zero temperature vibrational energy from the frequency calculation
    E(vib)  - the the finite temperature correction to E(ZPE) due to population
              of excited vibrational states
    E(rot)  - is the rotational thermal energy
    E(trans)- is the translational thermal energy

Summary of contributions to the inner energy U:
Electronic energy                ...  -1850.87146427 Eh
Zero point energy                ...      0.49302250 Eh     309.38 kcal/mol
Thermal vibrational correction   ...      0.02723089 Eh      17.09 kcal/mol
Thermal rotational correction    ...      0.00141627 Eh       0.89 kcal/mol
Thermal translational correction ...      0.00141627 Eh       0.89 kcal/mol
-----------------------------------------------------------------------
Total thermal energy                  -1850.34837834 Eh


Summary of corrections to the electronic energy:
(perhaps to be used in another calculation)
Total thermal correction                  0.03006344 Eh      18.87 kcal/mol
Non-thermal (ZPE) correction              0.49302250 Eh     309.38 kcal/mol
-----------------------------------------------------------------------
Total correction                          0.52308594 Eh     328.24 kcal/mol


--------
ENTHALPY
--------

The enthalpy is H = U + kB*T
                kB is Boltzmann's constant
Total thermal energy              ...  -1850.34837834 Eh 
Thermal Enthalpy correction       ...      0.00094421 Eh       0.59 kcal/mol
-----------------------------------------------------------------------
Total Enthalpy                    ...  -1850.34743413 Eh


Note: Only C1 symmetry has been detected, increase convergence thresholds 
      if your molecule has a higher symmetry. Symmetry factor of 1.0 is   
      used for the rotational entropy correction. 
 

Note: Rotational entropy computed according to Herzberg 
Infrared and Raman Spectra, Chapter V,1, Van Nostrand Reinhold, 1945 
Point Group:  C1, Symmetry Number:   1  
Rotational constants in cm-1:     0.004529     0.001702     0.001271 

Vibrational entropy computed according to the QRRHO of S. Grimme
Chem.Eur.J. 2012 18 9955 using a reference frequency of 100.0 cm-1


-------
ENTROPY
-------

The entropy contributions are T*S = T*(S(el)+S(vib)+S(rot)+S(trans))
     S(el)   - electronic entropy
     S(vib)  - vibrational entropy
     S(rot)  - rotational entropy
     S(trans)- translational entropy
The entropies will be listed as multiplied by the temperature to get
units of energy

Electronic entropy                ...      0.00000000 Eh      0.00 kcal/mol
Vibrational entropy               ...      0.04964828 Eh     31.15 kcal/mol
Rotational entropy                ...      0.01821699 Eh     11.43 kcal/mol
Translational entropy             ...      0.02102626 Eh     13.19 kcal/mol
-----------------------------------------------------------------------
Final entropy term                ...      0.08889153 Eh     55.78 kcal/mol

In case the symmetry of your molecule has not been determined correctly
or in case you have a reason to use a different symmetry number we print 
out the resulting rotational entropy values for sn=1,12:

 non-linear molecules -----------------------------------
|  sn= 1 | S(rot)=       0.01821699 Eh     11.43 kcal/mol|
|  sn= 2 | S(rot)=       0.01756254 Eh     11.02 kcal/mol|
|  sn= 3 | S(rot)=       0.01717970 Eh     10.78 kcal/mol|
|  sn= 4 | S(rot)=       0.01690808 Eh     10.61 kcal/mol|
|  sn= 5 | S(rot)=       0.01669739 Eh     10.48 kcal/mol|
|  sn= 6 | S(rot)=       0.01652525 Eh     10.37 kcal/mol|
|  sn= 7 | S(rot)=       0.01637970 Eh     10.28 kcal/mol|
|  sn= 8 | S(rot)=       0.01625362 Eh     10.20 kcal/mol|
|  sn= 9 | S(rot)=       0.01614242 Eh     10.13 kcal/mol|
|  sn=10 | S(rot)=       0.01604294 Eh     10.07 kcal/mol|
|  sn=11 | S(rot)=       0.01595295 Eh     10.01 kcal/mol|
|  sn=12 | S(rot)=       0.01587079 Eh      9.96 kcal/mol|
 linear molecules ---------------------------------------
|  Dinfh | S(rot)=       0.01162193 Eh      7.29 kcal/mol|
|  Cinfv | S(rot)=       0.01227638 Eh      7.70 kcal/mol|
 --------------------------------------------------------


-------------------
GIBBS FREE ENERGY
-------------------

The Gibbs free energy is G = H - T*S

Total enthalpy                    ...  -1850.34743413 Eh 
Total entropy correction          ...     -0.08889153 Eh    -55.78 kcal/mol
-----------------------------------------------------------------------
Final Gibbs free energy         ...  -1850.43632566 Eh

For completeness - the Gibbs free energy minus the electronic energy
G-E(el)                           ...      0.43513861 Eh    273.05 kcal/mol


Maximum memory used throughout the entire PROP-calculation: 488.5 MB

--------------------------------
SUGGESTED CITATIONS FOR THIS RUN
--------------------------------

Below you find a list of papers that are relevant to this ORCA run
We neither can nor want to force you to cite these papers, but we appreciate if you do
You receive ORCA, which is the product of decades of hard work by many enthusiastic individuals, for free
The only thing we kindly ask in return is that you cite our papers,
We deeply appreciate it, if you show your appreciation for ORCA by not just citing the generic ORCA reference.

Please note that relegating all ORCA citations to the supporting information does *not* help us.
SI sections are not indexed - citations you put there will not count into any citation statistics
But we need these citations in order to attract the funding resources that allow us to do what we are doing

Therefore, if you are a happy ORCA user, please consider citing a few of the papers listed below in the main body of your paper

In addition to the list printed below, the program has created the file DFT_calculations.bibtex that contains the list in bibtex format
You can import this file easily into all common literature databanks and citation aid programs

It goes without saying that in many instances, there are alternative algorithms to achieve similar
results as the ones you have gotten from ORCA. It is, of course, also the case that in some instances
ORCA just re-implements algorithms worked out by others. We are fully aware of that and we are also
fully appreciative of our colleagues work. Hence this citation list should not be read as indicating
that the listed papers, which are focused on our own work, are the only ones worth citing. It simply
meant to make it easier for users to cite ORCA specific papers. It is not a substitute for doing your
own literature research and citing the relevant literature in a scientifically appropriate manner.

List of essential papers. We consider these as the minimum necessary citations

  1. Neese, F.
     Software update: the ORCA program system, version 6.0
     WIRES Comput. Molec. Sci. 2025 15(1), e70019
     doi.org/10.1002/wcms.70019

List of papers to cite with high priority. The work reported in these papers was absolutely
necessary for this run to complete.
Our perspective: the developers of density functionals and basis sets usually get cited in chemistry papers
Good! But without the algorithms to do something with them, the functionals or basis sets would not do anything.
Hence, in our opinion, the algorithm design and method developments papers are equally worthy of getting cited

  1. Neese, F.
     An improvement of the resolution of the identity approximation for the formation of the Coulomb matrix
     J. Comp. Chem. 2003 24(14), 1740-1747
     doi.org/10.1002/jcc.10318
  2. Neese, F.; Wennmohs, F.; Hansen, A.; Becker, U.
     Efficient, approximate and parallel Hartree-Fock and hybrid DFT calculations. A 'chain-of-spheres' algorithm for the Hartree-Fock exchange
     Chem. Phys. 2009 356(1-3), 98-109
     doi.org/10.1016/j.chemphys.2008.10.036
  3. Bykov, D.; Petrenko, T.; Izsak, R.; Kossmann, S.; Becker, U.; Valeev, E.; Neese, F.
     Efficient implementation of the analytic second derivatives of Hartree-Fock and hybrid DFT energies: a detailed analysis of different approximations
     Molec. Phys. 2015 113 , 1961-1977
     doi.org/10.1080/00268976.2015.1025114
  4. Helmich-Paris, B.; de Souza, B.; Neese, F.; Izsák, R.
     An improved chain of spheres for exchange algorithm
     J. Chem. Phys. 2021 155(10), 104109
     doi.org/10.1063/5.0058766
  5. Neese, F.
     The SHARK Integral Generation and Digestion System
     J. Comp. Chem. 2022 44(3), 381
     doi.org/10.1002/jcc.26942

List of suggested additional citations. These are papers that are important in the 'surrounding' of 
of this run, or papers that preceded the highly important papers. If you like your results we are grateful for a citation.

  1. Izsak, R.; Neese, F.
     An overlap fitted chain of spheres exchange method
     J. Chem. Phys. 2011 135 , 144105
     doi.org/10.1063/1.3646921
  2. Izsak, R.; Hansen, A.; Neese, F.
     The resolution of identity and chain of spheres approximations for the LPNO-CCSD singles Fock term
     Molec. Phys. 2012 110 , 2413-2417
     doi.org/10.1080/00268976.2012.687466
  3. Neese, F.
     The ORCA program system
     WIRES Comput. Molec. Sci. 2012 2(1), 73-78
     doi.org/10.1002/wcms.81
  4. Izsak, R.; Neese, F.; Klopper, W.
     Robust fitting techniques in the chain of spheres approximation to the Fock exchange: The role of the complementary space
     J. Chem. Phys. 2013 139 , 
     doi.org/10.1063/1.4819264
  5. Neese, F.
     Software update: the ORCA program system, version 4.0
     WIRES Comput. Molec. Sci. 2018 8(1), 1-6
     doi.org/10.1002/wcms.1327
  6. Neese, F.; Wennmohs, F.; Becker, U.; Riplinger, C.
     The ORCA quantum chemistry program package
     J. Chem. Phys. 2020 152(22), 224108
     doi.org/10.1063/5.0004608
  7. Neese, F.
     Software update: The ORCA program system—Version 5.0
     WIRES Comput. Molec. Sci. 2022 12(1), e1606
     doi.org/10.1002/wcms.1606

List of optional additional citations

  1. Neese, F.
     Approximate second-order SCF convergence for spin unrestricted wavefunctions
     Chem. Phys. Lett. 2000 325(1-3), 93-98
     doi.org/10.1016/s0009-2614(00)00662-x

Timings for individual modules:

Sum of individual times          ...     5722.384 sec (=  95.373 min)
Startup calculation              ...       99.526 sec (=   1.659 min)   1.7 %
SCF iterations                   ...     1765.014 sec (=  29.417 min)  30.8 %
Property integrals               ...      741.617 sec (=  12.360 min)  13.0 %
SCF Response                     ...     1164.001 sec (=  19.400 min)  20.3 %
Property calculations            ...     1033.654 sec (=  17.228 min)  18.1 %
SCF Gradient evaluation          ...      917.864 sec (=  15.298 min)  16.0 %
Geometry relaxation              ...        0.708 sec (=   0.012 min)   0.0 %
                             ****ORCA TERMINATED NORMALLY****
TOTAL RUN TIME: 0 days 1 hours 35 minutes 26 seconds 838 msec
